 Gaussian 09, Revision D.01,

 ----------------------------------------------------------------------
 #CAM-B3LYP/cc-pVDZ opt(noeigentest,modredundant) nosymm SCRF=(Solvent=
 water) TD(NStates=3,root=1) guess=read geom=(allcheck,modredundant)
 ----------------------------------------------------------------------

 Structure from the checkpoint file:  "Azo0.chk"
 --------
 Azo0 deg
 --------
 Charge =  0 Multiplicity = 1

 SCF Done:  E(RCAM-B3LYP) =  -2026.25034144     A.U. after    9 cycles
 SCF Done:  E(RCAM-B3LYP) =  -2026.23528507     A.U. after   18 cycles
 SCF Done:  E(RCAM-B3LYP) =  -2026.22162649     A.U. after   19 cycles
 SCF Done:  E(RCAM-B3LYP) =  -2026.21627852     A.U. after   18 cycles
 SCF Done:  E(RCAM-B3LYP) =  -2026.21570261     A.U. after   15 cycles
 SCF Done:  E(RCAM-B3LYP) =  -2026.21528631     A.U. after   15 cycles
 SCF Done:  E(RCAM-B3LYP) =  -2026.21534800     A.U. after   18 cycles
 SCF Done:  E(RCAM-B3LYP) =  -2026.21538736     A.U. after   14 cycles
 SCF Done:  E(RCAM-B3LYP) =  -2026.21533433     A.U. after   15 cycles
 SCF Done:  E(RCAM-B3LYP) =  -2026.21525178     A.U. after   24 cycles
 SCF Done:  E(RCAM-B3LYP) =  -2026.21525255     A.U. after   14 cycles
 SCF Done:  E(RCAM-B3LYP) =  -2026.21530938     A.U. after   17 cycles
 SCF Done:  E(RCAM-B3LYP) =  -2026.21535452     A.U. after   13 cycles
 SCF Done:  E(RCAM-B3LYP) =  -2026.21537348     A.U. after   13 cycles
 SCF Done:  E(RCAM-B3LYP) =  -2026.21537980     A.U. after   13 cycles
 SCF Done:  E(RCAM-B3LYP) =  -2026.21536916     A.U. after   12 cycles
 SCF Done:  E(RCAM-B3LYP) =  -2026.21536036     A.U. after   11 cycles
 Optimization completed.
    -- Stationary point found.
 Normal termination of Gaussian 09 at Tue May  9 18:39:07 2017.
 Gaussian 09:  ES64L-G09RevD.01 24-Apr-2013

 ----------------------------------------------------------------------
 #CAM-B3LYP/cc-pVDZ nosymm TD(NStates=2, triplets, root=1) guess=read g
 eom=(allcheck,modredundant)
 ----------------------------------------------------------------------

 Structure from the checkpoint file:  "Azo0.chk"
 --------
 Azo0 deg
 --------
 Charge =  0 Multiplicity = 1

                          Input orientation:
 ---------------------------------------------------------------------
 Center     Atomic      Atomic             Coordinates (Angstroms)
 Number     Number       Type             X           Y           Z
 ---------------------------------------------------------------------
      1          6           0        0.019936   -0.283525    0.668021
      2          6           0        0.117804   -0.272529    2.128958
      3          6           0        1.392076   -0.197581    2.746663
      4          6           0        2.595676   -0.146378    1.938246
      5          6           0        2.501046   -0.173060    0.524875
      6          6           0        1.201416   -0.239630   -0.115267
      7          6           0        3.865866   -0.072208    2.563112
      8          6           0        5.042213   -0.030887    1.772088
      9          6           0        4.948516   -0.064380    0.359345
     10          6           0        3.677034   -0.131147   -0.267122
     11          6           0        6.152808   -0.035705   -0.449572
     12          6           0        6.069089   -0.078710   -1.864385
     13          6           0        4.754456   -0.134233   -2.511963
     14          6           0        3.580440   -0.159351   -1.708560
     15          6           0        2.314171   -0.221131   -2.347091
     16          6           0        1.097367   -0.255833   -1.529600
     17          6           0        7.427568    0.030336    0.167768
     18          6           0        7.523821    0.085360    1.627676
     19          6           0        6.342460    0.048485    2.411146
     20          6           0        6.443965    0.093034    3.824972
     21          6           0        5.229174    0.045172    4.641240
     22          6           0        3.962161   -0.038661    4.009506
     23          6           0        2.790279   -0.088720    4.806641
     24          6           0        1.478587   -0.175880    4.161903
     25          6           0        2.231946   -0.258926   -3.737773
     26          6           0        3.393666   -0.197756   -4.524319
     27          6           0        4.646230   -0.153991   -3.896112
     28          6           0        8.576324    0.040622   -0.631262
     29          6           0        8.486597   -0.008709   -2.012090
     30          6           0        7.243955   -0.065727   -2.622015
     31          6           0        2.907605   -0.052398    6.200178
     32          6           0        4.148137    0.030722    6.810471
     33          6           0        5.296964    0.078683    6.038078
     34          6           0        8.766028    0.174638    2.265258
     35          6           0        8.857534    0.222993    3.646288
     36          6           0        7.708019    0.180705    4.417896
     37          6           0       -1.028349   -0.334073    2.928816
     38          6           0       -0.936214   -0.317919    4.310679
     39          6           0        0.304715   -0.237654    4.920565
     40          6           0       -1.223956   -0.333652    0.029854
     41          6           0       -1.318241   -0.339992   -1.351776
     42          6           0       -0.168385   -0.301159   -2.122993
     43          7           0        3.361801   -0.236838   -5.893513
     44          7           0        2.583749   -0.072054   -6.822682
     45          6           0        1.280302    0.246840   -7.135139
     46          6           0        0.495791    1.103625   -6.332419
     47          6           0       -0.805536    1.400974   -6.704925
     48          6           0       -1.340757    0.891079   -7.891818
     49          6           0       -0.551723    0.077366   -8.711600
     50          6           0        0.744535   -0.240728   -8.340178
     51          8           0       -2.618695    1.225524   -8.197431
     52          1           0        5.521169   -0.127169   -4.539220
     53          1           0        1.273701   -0.353338   -4.235592
     54          1           0        0.913495    1.541174   -5.426711
     55          1           0       -1.424221    2.051785   -6.085608
     56          1           0       -2.868723    0.817499   -9.039592
     57          1           0        1.361362   -0.879973   -8.971959
     58          1           0       -0.960905   -0.314980   -9.645385
     59          1           0        7.201774   -0.101932   -3.707702
     60          1           0        9.392688   -0.002029   -2.618917
     61          1           0        9.563603    0.084709   -0.178651
     62          1           0        6.257130    0.142724    6.543640
     63          1           0        4.220433    0.058154    7.898318
     64          1           0        2.022588   -0.088005    6.830265
     65          1           0        7.809972    0.218539    5.499415
     66          1           0        9.834331    0.293964    4.126159
     67          1           0        9.684205    0.210241    1.684574
     68          1           0        0.347230   -0.225391    6.006670
     69          1           0       -1.840470   -0.367926    4.918334
     70          1           0       -2.014953   -0.397866    2.477069
     71          1           0       -0.274136   -0.300256   -3.204905
     72          1           0       -2.296629   -0.373917   -1.832236
     73          1           0       -2.142173   -0.363446    0.610838
 ---------------------------------------------------------------------

 SCF Done:  E(RCAM-B3LYP) =  -2026.19645509     A.U. after   18 cycles

 Excitation energies and oscillator strengths:

 Excited state symmetry could not be determined.
 Excited State   1:      Triplet-?Sym    -0.2749 eV    -4510.77 nm  f=-0.0000  <S**2>=2.000
     164 ->167        -0.12589
     166 ->167         0.63874
     166 ->169         0.11796
     166 ->170         0.36562
     166 ->173         0.10287
     166 ->182        -0.12111
     166 ->191        -0.10684
     166 <-167         0.32040
     166 <-170         0.18966
 This state for optimization and/or second-order correction.
 Total Energy, E(TD-HF/TD-KS) =  -2026.20655610
 Copying the excited state density for this state as the 1-particle RhoCI density.

 Excited state symmetry could not be determined.
 Excited State   2:      Triplet-?Sym    1.8534 eV  668.95 nm  f=0.0000  <S**2>=2.000
     157 ->176         0.10182
     159 ->173         0.11379
     160 ->172         0.11900
     161 ->171        -0.10333
     162 ->167         0.12159
     162 ->170         0.12394
     163 ->169         0.26455
     164 ->167         0.34293
     164 ->168         0.12501
     164 ->170        -0.16508
     165 ->167         0.12122
     165 ->168        -0.34518
     166 ->167         0.11204
     165 <-168        -0.10865

 Alpha  occ. eigenvalues --  -19.25801 -14.43508 -14.43425 -10.33879 -10.29962
 Alpha  occ. eigenvalues --  -10.29848 -10.28286 -10.28142 -10.28138 -10.28121
 Alpha  occ. eigenvalues --  -10.28117 -10.28100 -10.28079 -10.28036 -10.28022
 Alpha  occ. eigenvalues --  -10.27963 -10.27930 -10.27908 -10.27908 -10.27902
 Alpha  occ. eigenvalues --  -10.27899 -10.27895 -10.27882 -10.27871 -10.27866
 Alpha  occ. eigenvalues --  -10.27860 -10.27848 -10.27842 -10.27836 -10.27819
 Alpha  occ. eigenvalues --  -10.27804 -10.27782 -10.27596 -10.27065 -10.26904
 Alpha  occ. eigenvalues --  -10.26897 -10.26895 -10.26873 -10.26870 -10.26827
 Alpha  occ. eigenvalues --  -10.26778 -10.26740 -10.26730 -10.26704 -10.26695
 Alpha  occ. eigenvalues --  -10.26687 -10.26679 -10.26659 -10.26648 -10.26643
 Alpha  occ. eigenvalues --  -10.26589  -1.15851  -1.10656  -1.00448  -0.98217
 Alpha  occ. eigenvalues --   -0.98052  -0.96108  -0.95288  -0.95154  -0.94437
 Alpha  occ. eigenvalues --   -0.93265  -0.90643  -0.89802  -0.89778  -0.88632
 Alpha  occ. eigenvalues --   -0.87784  -0.86723  -0.84674  -0.84558  -0.83858
 Alpha  occ. eigenvalues --   -0.83850  -0.83136  -0.83070  -0.82382  -0.79548
 Alpha  occ. eigenvalues --   -0.79294  -0.78989  -0.76513  -0.74061  -0.73325
 Alpha  occ. eigenvalues --   -0.72857  -0.72502  -0.71320  -0.71088  -0.70693
 Alpha  occ. eigenvalues --   -0.69505  -0.68993  -0.68406  -0.66434  -0.66088
 Alpha  occ. eigenvalues --   -0.64808  -0.63632  -0.63071  -0.62663  -0.61877
 Alpha  occ. eigenvalues --   -0.61804  -0.60456  -0.59836  -0.59112  -0.58596
 Alpha  occ. eigenvalues --   -0.57115  -0.56605  -0.56437  -0.56203  -0.54800
 Alpha  occ. eigenvalues --   -0.54470  -0.53873  -0.53201  -0.52533  -0.52233
 Alpha  occ. eigenvalues --   -0.51954  -0.51532  -0.51201  -0.50846  -0.50794
 Alpha  occ. eigenvalues --   -0.50289  -0.50185  -0.49729  -0.49517  -0.49307
 Alpha  occ. eigenvalues --   -0.49084  -0.48922  -0.48699  -0.48641  -0.48500
 Alpha  occ. eigenvalues --   -0.48374  -0.47820  -0.47699  -0.46678  -0.46406
 Alpha  occ. eigenvalues --   -0.45203  -0.44977  -0.44787  -0.44548  -0.44094
 Alpha  occ. eigenvalues --   -0.44073  -0.44019  -0.43945  -0.43108  -0.42347
 Alpha  occ. eigenvalues --   -0.42094  -0.41825  -0.40891  -0.40566  -0.40471
 Alpha  occ. eigenvalues --   -0.40170  -0.39078  -0.38361  -0.38011  -0.37558
 Alpha  occ. eigenvalues --   -0.37497  -0.37180  -0.35814  -0.35403  -0.32514
 Alpha  occ. eigenvalues --   -0.31577  -0.30971  -0.30898  -0.30716  -0.30684
 Alpha  occ. eigenvalues --   -0.30338  -0.28234  -0.26230  -0.24304  -0.24282
 Alpha  occ. eigenvalues --   -0.21941
 Alpha virt. eigenvalues --   -0.04707  -0.03134  -0.02318  -0.01874   0.01334
 Alpha virt. eigenvalues --    0.01715   0.02187   0.02773   0.03306   0.03610
 Alpha virt. eigenvalues --    0.04930   0.07541   0.08008   0.08299   0.09822

 Mulliken charges:
               1
     1  C   -0.022978
     2  C   -0.018633
     3  C    0.072289
     4  C    0.064664
     5  C    0.048544
     6  C    0.082109
     7  C    0.054904
     8  C    0.063427
     9  C    0.051563
    10  C    0.079419
    11  C    0.079252
    12  C   -0.038671
    13  C    0.036905
    14  C    0.058650
    15  C    0.005078
    16  C   -0.037878
    17  C   -0.022854
    18  C   -0.018750
    19  C    0.072813
    20  C   -0.018734
    21  C   -0.020117
    22  C    0.077169
    23  C   -0.020327
    24  C   -0.018926
    25  C   -0.034822
    26  C    0.048316
    27  C   -0.011353
    28  C   -0.040711
    29  C    0.105351
    30  C   -0.038855
    31  C   -0.043161
    32  C    0.105102
    33  C   -0.043251
    34  C   -0.043165
    35  C    0.105003
    36  C   -0.043568
    37  C   -0.043487
    38  C    0.105013
    39  C   -0.043265
    40  C   -0.040941
    41  C    0.104042
    42  C   -0.042033
    43  N   -0.132434
    44  N   -0.133310
    45  C    0.017953
    46  C    0.028636
    47  C    0.046572
    48  C    0.040557
    49  C    0.008759
    50  C    0.070611
    51  O   -0.164447
    52  H   -0.047030
    53  H   -0.019378
    54  H    0.000898
    55  H   -0.012252
    56  H    0.152322
    57  H   -0.015672
    58  H   -0.019937
    59  H   -0.030443
    60  H   -0.029492
    61  H   -0.038777
    62  H   -0.038988
    63  H   -0.031272
    64  H   -0.039161
    65  H   -0.039205
    66  H   -0.031311
    67  H   -0.038706
    68  H   -0.039056
    69  H   -0.031396
    70  H   -0.039036
    71  H   -0.038676
    72  H   -0.030472
    73  H   -0.038989
 Sum of Mulliken charges =   0.00000

 Dipole moment (field-independent basis, Debye):
    X=             -2.3023    Y=              0.0050    Z=              0.6571  Tot=              2.3942
 Quadrupole moment (field-independent basis, Debye-Ang):
   XX=           -253.0519   YY=           -298.2873   ZZ=           -239.3577
   XY=              4.2518   XZ=             29.7394   YZ=              3.2251

 Normal termination of Gaussian 09 at Tue May  9 18:55:10 2017.
