 Gaussian 09, Revision D.01,

 ----------------------------------------------------------------------
 #CAM-B3LYP/cc-pVDZ opt(noeigentest,modredundant) nosymm SCRF=(Solvent=
 water) TD(NStates=3,root=1) guess=read geom=(allcheck,modredundant)
 ----------------------------------------------------------------------

 Structure from the checkpoint file:  "Azo180.chk"
 ----------
 Azo180 deg
 ----------
 Charge =  0 Multiplicity = 1

 SCF Done:  E(RCAM-B3LYP) =  -2026.27569889     A.U. after   12 cycles
 SCF Done:  E(RCAM-B3LYP) =  -2026.25886180     A.U. after   18 cycles
 SCF Done:  E(RCAM-B3LYP) =  -2026.25322067     A.U. after   15 cycles
 SCF Done:  E(RCAM-B3LYP) =  -2026.25238247     A.U. after   19 cycles
 SCF Done:  E(RCAM-B3LYP) =  -2026.25249833     A.U. after   16 cycles
 SCF Done:  E(RCAM-B3LYP) =  -2026.25254746     A.U. after   13 cycles
 SCF Done:  E(RCAM-B3LYP) =  -2026.25255751     A.U. after   13 cycles
 Optimization completed.
    -- Stationary point found.
 Normal termination of Gaussian 09 at Sat May 13 11:37:48 2017.
 Gaussian 09:  ES64L-G09RevD.01 24-Apr-2013

 ----------------------------------------------------------------------
 #CAM-B3LYP/cc-pVDZ nosymm TD(NStates=2, triplets, root=1) guess=read g
 eom=(allcheck,modredundant)
 ----------------------------------------------------------------------

 Structure from the checkpoint file:  "Azo180.chk"
 ----------
 Azo180 deg
 ----------
 Charge =  0 Multiplicity = 1

                          Input orientation:
 ---------------------------------------------------------------------
 Center     Atomic      Atomic             Coordinates (Angstroms)
 Number     Number       Type             X           Y           Z
 ---------------------------------------------------------------------
      1          6           0       -0.039359    0.157794    0.091119
      2          6           0       -0.014831    0.173307    1.555099
      3          6           0        1.227495    0.122408    2.237033
      4          6           0        2.470067    0.055253    1.491105
      5          6           0        2.445784    0.040354    0.074540
      6          6           0        1.179517    0.092402   -0.630770
      7          6           0        3.707813    0.004385    2.180037
      8          6           0        4.921538   -0.061797    1.450018
      9          6           0        4.897520   -0.077144    0.033728
     10          6           0        3.659313   -0.025859   -0.656388
     11          6           0        6.139444   -0.145276   -0.713368
     12          6           0        6.124902   -0.161182   -2.131252
     13          6           0        4.844911   -0.107715   -2.844600
     14          6           0        3.634484   -0.040930   -2.102151
     15          6           0        2.401021    0.010911   -2.803362
     16          6           0        1.146034    0.078227   -2.048324
     17          6           0        7.381922   -0.196739   -0.031940
     18          6           0        7.407143   -0.179673    1.431969
     19          6           0        6.188833   -0.113395    2.154573
     20          6           0        6.221105   -0.097653    3.572276
     21          6           0        4.967294   -0.030079    4.325653
     22          6           0        3.732574    0.020103    3.629903
     23          6           0        2.522351    0.085859    4.366171
     24          6           0        1.243517    0.137605    3.654947
     25          6           0        2.388018   -0.002521   -4.195342
     26          6           0        3.587743   -0.068795   -4.919526
     27          6           0        4.807068   -0.121553   -4.234367
     28          6           0        8.567333   -0.263088   -0.772331
     29          6           0        8.545128   -0.278285   -2.156770
     30          6           0        7.334884   -0.227377   -2.828834
     31          6           0        2.570970    0.100347    5.764210
     32          6           0        3.780438    0.050604    6.437282
     33          6           0        4.966294   -0.014168    5.724479
     34          6           0        8.617159   -0.227636    2.132708
     35          6           0        8.641344   -0.211397    3.517352
     36          6           0        7.455110   -0.147041    4.229452
     37          6           0       -1.200140    0.237733    2.295424
     38          6           0       -1.177156    0.251782    3.680186
     39          6           0        0.032603    0.201962    4.352678
     40          6           0       -1.249093    0.206526   -0.609897
     41          6           0       -1.273847    0.191923   -1.994517
     42          6           0       -0.087144    0.128323   -2.705933
     43          7           0        3.599213   -0.083676   -6.284945
     44          7           0        2.640057   -0.041830   -7.079880
     45          6           0        2.647294   -0.056553   -8.451341
     46          6           0        3.847743   -0.132339   -9.188500
     47          6           0        3.808177   -0.145277  -10.572669
     48          6           0        2.586860   -0.083943  -11.250658
     49          6           0        1.396140   -0.008259  -10.521571
     50          6           0        1.421824    0.005491   -9.135791
     51          8           0        2.619402   -0.101215  -12.608272
     52          1           0        5.714110   -0.172966   -4.829663
     53          1           0        1.463261    0.037341   -4.763286
     54          1           0        4.797222   -0.180404   -8.655119
     55          1           0        4.729880   -0.203894  -11.153462
     56          1           0        1.715508   -0.057033  -12.953245
     57          1           0        0.494372    0.064784   -8.565863
     58          1           0        0.439608    0.041253  -11.046541
     59          1           0        7.346428   -0.240018   -3.915726
     60          1           0        9.479062   -0.330242   -2.717424
     61          1           0        9.530557   -0.304166   -0.270351
     62          1           0        5.900778   -0.052712    6.278424
     63          1           0        3.799105    0.062402    7.527642
     64          1           0        1.655752    0.151195    6.348436
     65          1           0        7.503858   -0.135518    5.315262
     66          1           0        9.594057   -0.249363    4.046806
     67          1           0        9.563096   -0.278431    1.599692
     68          1           0        0.021026    0.213891    5.439523
     69          1           0       -2.111291    0.302152    4.240787
     70          1           0       -2.163636    0.278090    1.793907
     71          1           0       -0.135193    0.117862   -3.791738
     72          1           0       -2.226377    0.230489   -2.524101
     73          1           0       -2.194940    0.256783   -0.076612
 ---------------------------------------------------------------------

 SCF Done:  E(RCAM-B3LYP) =  -2026.23572689     A.U. after   16 cycles

 Excitation energies and oscillator strengths:

 Excited state symmetry could not be determined.
 Excited State   1:      Triplet-?Sym    0.9004 eV 1376.96 nm  f=0.0000  <S**2>=2.000
     164 ->167         0.60908
     164 ->169         0.10522
     164 ->170         0.28434
     164 ->182        -0.14509
     164 ->191         0.11772
     164 <-167         0.12011
 This state for optimization and/or second-order correction.
 Total Energy, E(TD-HF/TD-KS) =  -2026.20263705
 Copying the excited state density for this state as the 1-particle RhoCI density.

 Excited state symmetry could not be determined.
 Excited State   2:      Triplet-?Sym    1.7077 eV  726.05 nm  f=0.0000  <S**2>=2.000
     160 ->172        -0.10132
     162 ->167        -0.28366
     162 ->170        -0.20698
     163 ->169        -0.20157
     165 ->168        -0.27293
     166 ->167         0.44474
     166 <-167         0.11718

 Alpha  occ. eigenvalues --  -19.25900 -14.43788 -14.43300 -10.34023 -10.29480
 Alpha  occ. eigenvalues --  -10.29343 -10.28048 -10.28041 -10.27958 -10.27939
 Alpha  occ. eigenvalues --  -10.27935 -10.27891 -10.27863 -10.27861 -10.27850
 Alpha  occ. eigenvalues --  -10.27767 -10.27764 -10.27754 -10.27748 -10.27739
 Alpha  occ. eigenvalues --  -10.27729 -10.27722 -10.27712 -10.27706 -10.27700
 Alpha  occ. eigenvalues --  -10.27691 -10.27688 -10.27676 -10.27673 -10.27648
 Alpha  occ. eigenvalues --  -10.27615 -10.27485 -10.27408 -10.26831 -10.26771
 Alpha  occ. eigenvalues --  -10.26748 -10.26713 -10.26709 -10.26676 -10.26636
 Alpha  occ. eigenvalues --  -10.26558 -10.26551 -10.26543 -10.26536 -10.26534
 Alpha  occ. eigenvalues --  -10.26525 -10.26509 -10.26482 -10.26474 -10.26407
 Alpha  occ. eigenvalues --  -10.26352  -1.15846  -1.10479  -1.00264  -0.98042
 Alpha  occ. eigenvalues --   -0.97874  -0.96118  -0.95107  -0.94917  -0.94221
 Alpha  occ. eigenvalues --   -0.93065  -0.90581  -0.89628  -0.89576  -0.88576
 Alpha  occ. eigenvalues --   -0.87592  -0.86560  -0.84506  -0.84246  -0.83668
 Alpha  occ. eigenvalues --   -0.83502  -0.82901  -0.82720  -0.82069  -0.79304
 Alpha  occ. eigenvalues --   -0.79064  -0.78810  -0.76480  -0.73846  -0.72958
 Alpha  occ. eigenvalues --   -0.72468  -0.72322  -0.71050  -0.70940  -0.70513
 Alpha  occ. eigenvalues --   -0.69008  -0.68755  -0.67842  -0.66256  -0.65879
 Alpha  occ. eigenvalues --   -0.64607  -0.63266  -0.62813  -0.62197  -0.61632
 Alpha  occ. eigenvalues --   -0.61627  -0.60021  -0.59552  -0.58934  -0.58368
 Alpha  occ. eigenvalues --   -0.56924  -0.56447  -0.56205  -0.55628  -0.54688
 Alpha  occ. eigenvalues --   -0.53988  -0.53647  -0.53006  -0.52223  -0.51850
 Alpha  occ. eigenvalues --   -0.51722  -0.51414  -0.50891  -0.50611  -0.50586
 Alpha  occ. eigenvalues --   -0.50528  -0.50160  -0.49812  -0.49449  -0.49116
 Alpha  occ. eigenvalues --   -0.49061  -0.48778  -0.48686  -0.48527  -0.48327
 Alpha  occ. eigenvalues --   -0.48107  -0.47891  -0.47596  -0.46448  -0.45634
 Alpha  occ. eigenvalues --   -0.44862  -0.44798  -0.44731  -0.44290  -0.43929
 Alpha  occ. eigenvalues --   -0.43892  -0.43856  -0.43713  -0.42937  -0.42288
 Alpha  occ. eigenvalues --   -0.42096  -0.41640  -0.41016  -0.40540  -0.40315
 Alpha  occ. eigenvalues --   -0.40064  -0.39670  -0.38171  -0.37841  -0.37428
 Alpha  occ. eigenvalues --   -0.37287  -0.37040  -0.35629  -0.35365  -0.32303
 Alpha  occ. eigenvalues --   -0.31778  -0.30934  -0.30696  -0.30570  -0.30507
 Alpha  occ. eigenvalues --   -0.30200  -0.27080  -0.26025  -0.25032  -0.24088
 Alpha  occ. eigenvalues --   -0.23747
 Alpha virt. eigenvalues --   -0.04922  -0.02917  -0.02053  -0.01916   0.01495
 Alpha virt. eigenvalues --    0.01956   0.02333   0.03172   0.03499   0.03807
 Alpha virt. eigenvalues --    0.05235   0.07929   0.08273   0.08298   0.10040

 Mulliken charges:
               1
     1  C   -0.022223
     2  C   -0.018678
     3  C    0.072840
     4  C    0.063665
     5  C    0.049983
     6  C    0.080401
     7  C    0.054697
     8  C    0.063766
     9  C    0.050455
    10  C    0.079441
    11  C    0.079903
    12  C   -0.038215
    13  C    0.029424
    14  C    0.054543
    15  C    0.029199
    16  C   -0.040209
    17  C   -0.022556
    18  C   -0.018613
    19  C    0.072680
    20  C   -0.018942
    21  C   -0.020291
    22  C    0.077126
    23  C   -0.020323
    24  C   -0.019166
    25  C   -0.021012
    26  C    0.038893
    27  C   -0.004522
    28  C   -0.041324
    29  C    0.105132
    30  C   -0.037639
    31  C   -0.043248
    32  C    0.105031
    33  C   -0.043395
    34  C   -0.043428
    35  C    0.104941
    36  C   -0.043526
    37  C   -0.043473
    38  C    0.104958
    39  C   -0.043536
    40  C   -0.041258
    41  C    0.104941
    42  C   -0.033461
    43  N   -0.130461
    44  N   -0.124890
    45  C    0.001389
    46  C    0.058544
    47  C    0.051999
    48  C    0.045228
    49  C    0.006336
    50  C    0.078805
    51  O   -0.163342
    52  H   -0.054583
    53  H   -0.052676
    54  H   -0.014321
    55  H   -0.011686
    56  H    0.152617
    57  H   -0.022191
    58  H   -0.021587
    59  H   -0.033698
    60  H   -0.030931
    61  H   -0.039595
    62  H   -0.039387
    63  H   -0.031714
    64  H   -0.039421
    65  H   -0.039539
    66  H   -0.031832
    67  H   -0.039211
    68  H   -0.039620
    69  H   -0.031952
    70  H   -0.039369
    71  H   -0.034178
    72  H   -0.031681
    73  H   -0.040036
 Sum of Mulliken charges =   0.00000

 Dipole moment (field-independent basis, Debye):
    X=             -1.4412    Y=              0.0666    Z=             -0.9093  Tot=              1.7054
 Quadrupole moment (field-independent basis, Debye-Ang):
   XX=           -251.9025   YY=           -299.6797   ZZ=           -218.2301
   XY=             -2.3536   XZ=             18.2134   YZ=             -0.2076

 Normal termination of Gaussian 09 at Sat May 13 11:53:25 2017.
