 Gaussian 09, Revision D.01,

 ----------------------------------------------------------------------
 #CAM-B3LYP/cc-pVDZ opt(noeigentest,modredundant) nosymm SCRF=(Solvent=
 water) TD(NStates=3) guess=read geom=(allcheck,modredundant)
 ----------------------------------------------------------------------

 Structure from the checkpoint file:  "L0tail.chk"
 ----------
 L0tail deg
 ----------
 Charge =  0 Multiplicity = 1

 SCF Done:  E(RCAM-B3LYP) =  -1065.07348799     A.U. after   12 cycles
 SCF Done:  E(RCAM-B3LYP) =  -1065.06881662     A.U. after   12 cycles
 SCF Done:  E(RCAM-B3LYP) =  -1065.06697966     A.U. after   11 cycles
 SCF Done:  E(RCAM-B3LYP) =  -1065.06660404     A.U. after   10 cycles
 SCF Done:  E(RCAM-B3LYP) =  -1065.06657107     A.U. after   10 cycles
 SCF Done:  E(RCAM-B3LYP) =  -1065.06674491     A.U. after   10 cycles
 SCF Done:  E(RCAM-B3LYP) =  -1065.06679029     A.U. after    7 cycles
 SCF Done:  E(RCAM-B3LYP) =  -1065.06681598     A.U. after    8 cycles
 SCF Done:  E(RCAM-B3LYP) =  -1065.06680645     A.U. after    8 cycles
 SCF Done:  E(RCAM-B3LYP) =  -1065.06679078     A.U. after    7 cycles
 SCF Done:  E(RCAM-B3LYP) =  -1065.06679069     A.U. after    7 cycles
 Optimization completed.
    -- Stationary point found.
 Normal termination of Gaussian 09 at Sat May  6 15:13:56 2017.
 Gaussian 09:  ES64L-G09RevD.01 24-Apr-2013

 ----------------------------------------------------------------------
 #CAM-B3LYP/cc-pVDZ nosymm TD(NStates=2, triplets) guess=read geom=(all
 check,modredundant)
 ----------------------------------------------------------------------

 Structure from the checkpoint file:  "L0tail.chk"
 ----------
 L0tail deg
 ----------
 Charge =  0 Multiplicity = 1

                          Input orientation:
 ---------------------------------------------------------------------
 Center     Atomic      Atomic             Coordinates (Angstroms)
 Number     Number       Type             X           Y           Z
 ---------------------------------------------------------------------
      1          6           0       -0.079011    0.040772    0.005828
      2          6           0       -0.096367    0.172515    1.441139
      3          6           0        1.175413    0.340165    2.092868
      4          6           0        2.370209    0.372128    1.404370
      5          6           0        2.386374    0.239710   -0.005198
      6          6           0        1.120212    0.075752   -0.680841
      7          6           0       -1.334498   -0.128329   -0.685102
      8          6           0       -2.518037   -0.166565    0.012298
      9          6           0       -2.557030   -0.042420    1.415951
     10          6           0       -1.311248    0.132202    2.121022
     11          7           0        3.537108    0.258403   -0.722500
     12          6           0        4.807911    0.400705   -0.038358
     13          6           0       -3.860452   -0.102530    2.076741
     14          6           0       -3.902909    0.026126    3.588248
     15          6           0       -5.302123   -0.077923    4.176324
     16          6           0       -5.322783    0.049632    5.695741
     17          6           0       -6.720166   -0.077672    6.294407
     18          6           0       -6.748952    0.047785    7.814354
     19          6           0       -8.144562   -0.098638    8.412813
     20          6           0       -8.174697    0.026052    9.932856
     21          6           0       -9.568968   -0.132860   10.531221
     22          6           0       -9.600466   -0.008875   12.051085
     23          6           0      -10.994270   -0.174306   12.649361
     24          6           0      -11.013865   -0.049747   14.168572
     25          6           0        3.535057    0.127703   -2.172064
     26          8           0       -4.912273   -0.255203    1.435690
     27          1           0        1.185876    0.444125    3.179834
     28          1           0        3.297746    0.501089    1.957029
     29          1           0        1.097429   -0.027852   -1.763977
     30          1           0       -1.303733    0.233998    3.205721
     31          1           0       -3.467817   -0.297052   -0.507349
     32          1           0       -1.322908   -0.226761   -1.772452
     33          1           0       -3.435340    0.986850    3.872535
     34          1           0       -3.243939   -0.746010    4.025700
     35          1           0        4.564999    0.198847   -2.532660
     36          1           0        3.123326   -0.843500   -2.487824
     37          1           0        2.947100    0.928128   -2.645940
     38          1           0        5.619184    0.375176   -0.771080
     39          1           0        4.855219    1.355266    0.511220
     40          1           0        4.957402   -0.416494    0.686175
     41          1           0       -5.943445    0.697753    3.726585
     42          1           0       -5.748668   -1.040430    3.877004
     43          1           0       -4.886668    1.021606    5.989281
     44          1           0       -4.666561   -0.721873    6.137739
     45          1           0       -7.377793    0.692110    5.851818
     46          1           0       -7.153134   -1.050996    6.000991
     47          1           0       -6.326450    1.025666    8.107920
     48          1           0       -6.082209   -0.715137    8.255348
     49          1           0       -8.812621    0.662683    7.971112
     50          1           0       -8.565106   -1.077450    8.119470
     51          1           0       -7.761209    1.007767   10.226491
     52          1           0       -7.500917   -0.730736   10.373723
     53          1           0      -10.243406    0.623013   10.089757
     54          1           0       -9.981172   -1.115112   10.237413
     55          1           0       -9.192321    0.974939   12.345992
     56          1           0       -8.923558   -0.762551   12.493045
     57          1           0      -11.669937    0.579038   12.207502
     58          1           0      -11.400710   -1.157362   12.353295
     59          1           0      -10.642150    0.936410   14.491037
     60          1           0      -10.372518   -0.813286   14.638020
     61          1           0      -12.030119   -0.172453   14.572854
 ---------------------------------------------------------------------

 SCF Done:  E(RCAM-B3LYP) =  -1065.05578262     A.U. after   12 cycles

 Excitation energies and oscillator strengths:

 Excited state symmetry could not be determined.
 Excited State   1:      Triplet-?Sym    1.9375 eV  639.91 nm  f=0.0000  <S**2>=2.000
      94 -> 98        -0.14251
      96 -> 98         0.14524
      96 -> 99        -0.15940
      97 -> 98         0.64483
      97 <- 98         0.14774
 This state for optimization and/or second-order correction.
 Total Energy, E(TD-HF/TD-KS) =  -1064.98458005
 Copying the excited state density for this state as the 1-particle RhoCI density.

 Excited state symmetry could not be determined.
 Excited State   2:      Triplet-?Sym    3.3608 eV  368.91 nm  f=0.0000  <S**2>=2.000
      94 -> 98        -0.18962
      96 -> 98         0.12147
      97 -> 99         0.62914
      97 ->100        -0.10947

 Alpha  occ. eigenvalues --  -19.18515 -14.43494 -10.33294 -10.31537 -10.30551
 Alpha  occ. eigenvalues --  -10.30488 -10.27580 -10.27579 -10.27216 -10.26795
 Alpha  occ. eigenvalues --  -10.26675 -10.26038 -10.25683 -10.25582 -10.25500
 Alpha  occ. eigenvalues --  -10.25319 -10.24884 -10.24620 -10.24593 -10.24576
 Alpha  occ. eigenvalues --  -10.24575 -10.24531 -10.24515 -10.24503 -10.24436
 Alpha  occ. eigenvalues --  -10.24295  -1.09325  -1.05111  -0.95346  -0.90155
 Alpha  occ. eigenvalues --   -0.89445  -0.88227  -0.86332  -0.85549  -0.83863
 Alpha  occ. eigenvalues --   -0.83144  -0.82108  -0.80167  -0.79286  -0.76539
 Alpha  occ. eigenvalues --   -0.74614  -0.70949  -0.70045  -0.67989  -0.67153
 Alpha  occ. eigenvalues --   -0.65785  -0.64753  -0.64050  -0.64008  -0.61318
 Alpha  occ. eigenvalues --   -0.59979  -0.58258  -0.55853  -0.55305  -0.54987
 Alpha  occ. eigenvalues --   -0.54201  -0.54126  -0.53292  -0.52386  -0.51501
 Alpha  occ. eigenvalues --   -0.49986  -0.49878  -0.49694  -0.49076  -0.48651
 Alpha  occ. eigenvalues --   -0.48566  -0.48070  -0.47861  -0.47321  -0.46997
 Alpha  occ. eigenvalues --   -0.46175  -0.45995  -0.45749  -0.44643  -0.44089
 Alpha  occ. eigenvalues --   -0.43352  -0.42846  -0.42013  -0.41990  -0.41059
 Alpha  occ. eigenvalues --   -0.40275  -0.39370  -0.39150  -0.39100  -0.38427
 Alpha  occ. eigenvalues --   -0.38377  -0.38108  -0.37799  -0.37605  -0.37397
 Alpha  occ. eigenvalues --   -0.37291  -0.35250  -0.35208  -0.32442  -0.29967
 Alpha  occ. eigenvalues --   -0.28338  -0.23387
 Alpha virt. eigenvalues --   -0.01908   0.02041   0.07152   0.08843   0.09148
 Alpha virt. eigenvalues --    0.10516   0.10743   0.11272   0.11767   0.11954
 Alpha virt. eigenvalues --    0.12229   0.12577   0.12802   0.13588   0.13833

 Mulliken charges:
               1
     1  C    0.043314
     2  C    0.030843
     3  C    0.020640
     4  C   -0.009441
     5  C    0.188450
     6  C   -0.063823
     7  C    0.010781
     8  C    0.072651
     9  C   -0.014973
    10  C   -0.018463
    11  N   -0.311723
    12  C    0.069818
    13  C    0.046803
    14  C   -0.035483
    15  C    0.024763
    16  C   -0.014802
    17  C   -0.007066
    18  C   -0.008101
    19  C   -0.009545
    20  C   -0.009831
    21  C   -0.011208
    22  C   -0.017371
    23  C   -0.043356
    24  C   -0.011577
    25  C    0.079695
    26  O   -0.225228
    27  H   -0.038150
    28  H   -0.029448
    29  H   -0.051936
    30  H   -0.047277
    31  H   -0.026083
    32  H   -0.041385
    33  H    0.039922
    34  H    0.039729
    35  H    0.030128
    36  H    0.039195
    37  H    0.041076
    38  H    0.031716
    39  H    0.038234
    40  H    0.038804
    41  H    0.018181
    42  H    0.017351
    43  H    0.000625
    44  H    0.000236
    45  H    0.006873
    46  H    0.006621
    47  H    0.003270
    48  H    0.003067
    49  H    0.004985
    50  H    0.004861
    51  H    0.003820
    52  H    0.003702
    53  H    0.004430
    54  H    0.004357
    55  H    0.003749
    56  H    0.003676
    57  H    0.007872
    58  H    0.007850
    59  H    0.019154
    60  H    0.019151
    61  H    0.015874
 Sum of Mulliken charges =   0.00000

 Dipole moment (field-independent basis, Debye):
    X=              6.7066    Y=              0.5086    Z=             -0.4257  Tot=              6.7393
 Quadrupole moment (field-independent basis, Debye-Ang):
   XX=           -164.1310   YY=           -164.3519   ZZ=           -152.0754
   XY=             -0.2373   XZ=             -2.3542   YZ=              0.9958

 Normal termination of Gaussian 09 at Sat May  6 15:17:29 2017.
