 Gaussian 09, Revision D.01,

 ----------------------------------------------------------------------
 #CAM-B3LYP/cc-pVDZ opt(noeigentest,modredundant) nosymm SCRF=(Solvent=
 water) TD(NStates=3) guess=read geom=(allcheck,modredundant)
 ----------------------------------------------------------------------

 Structure from the checkpoint file:  "L180tail.chk"
 ------------
 L180tail deg
 ------------
 Charge =  0 Multiplicity = 1

 SCF Done:  E(RCAM-B3LYP) =  -1065.06858976     A.U. after    1 cycles
 SCF Done:  E(RCAM-B3LYP) =  -1065.06741204     A.U. after   11 cycles
 SCF Done:  E(RCAM-B3LYP) =  -1065.06627673     A.U. after   10 cycles
 SCF Done:  E(RCAM-B3LYP) =  -1065.06632046     A.U. after   10 cycles
 SCF Done:  E(RCAM-B3LYP) =  -1065.06636806     A.U. after    9 cycles
 SCF Done:  E(RCAM-B3LYP) =  -1065.06640515     A.U. after    8 cycles
 Optimization completed.
    -- Stationary point found.
 Normal termination of Gaussian 09 at Sun May  7 05:28:17 2017.
 Gaussian 09:  ES64L-G09RevD.01 24-Apr-2013

 ----------------------------------------------------------------------
 #CAM-B3LYP/cc-pVDZ nosymm TD(NStates=2, triplets) guess=read geom=(all
 check,modredundant)
 ----------------------------------------------------------------------

 Structure from the checkpoint file:  "L180tail.chk"
 ------------
 L180tail deg
 ------------
 Charge =  0 Multiplicity = 1

                          Input orientation:
 ---------------------------------------------------------------------
 Center     Atomic      Atomic             Coordinates (Angstroms)
 Number     Number       Type             X           Y           Z
 ---------------------------------------------------------------------
      1          6           0       -0.001384    0.110841   -0.131788
      2          6           0       -0.096611    0.255562    1.300003
      3          6           0        1.140611    0.353873    2.026484
      4          6           0        2.375179    0.311711    1.410800
      5          6           0        2.467953    0.166177    0.006052
      6          6           0        1.237143    0.068734   -0.744797
      7          6           0       -1.220206    0.011955   -0.895892
      8          6           0       -2.449826    0.051455   -0.275254
      9          6           0       -2.560154    0.189340    1.121737
     10          6           0       -1.350516    0.291788    1.898555
     11          7           0        3.658905    0.115567   -0.640656
     12          6           0        4.891930    0.208089    0.117158
     13          6           0       -3.846539    0.228684    1.810732
     14          6           0       -5.136653    0.122095    1.009568
     15          6           0       -6.389671    0.144003    1.873794
     16          6           0       -7.675616    0.046405    1.060010
     17          6           0       -8.936224    0.053721    1.919089
     18          6           0      -10.228272   -0.029141    1.112430
     19          6           0      -11.486877   -0.031294    1.974469
     20          6           0      -12.780534   -0.103653    1.169268
     21          6           0      -14.037931   -0.110855    2.033022
     22          6           0      -15.332567   -0.176551    1.229220
     23          6           0      -16.589562   -0.186167    2.093932
     24          6           0      -17.877249   -0.249436    1.280403
     25          6           0        3.737077   -0.031503   -2.086508
     26          8           0       -3.893842    0.347997    3.044559
     27          1           0        1.091377    0.466040    3.111581
     28          1           0        3.273869    0.391557    2.017700
     29          1           0        1.274495   -0.042453   -1.826818
     30          1           0       -1.446169    0.399788    2.978098
     31          1           0       -3.348532   -0.027091   -0.887743
     32          1           0       -1.149877   -0.095794   -1.979935
     33          1           0       -5.111802   -0.801811    0.406336
     34          1           0       -5.171347    0.946239    0.275501
     35          1           0        4.789945   -0.039387   -2.382415
     36          1           0        3.276528   -0.974014   -2.420299
     37          1           0        3.239700    0.803636   -2.602939
     38          1           0        5.743124    0.142035   -0.566010
     39          1           0        4.948003    1.164039    0.663425
     40          1           0        4.963603   -0.608961    0.853802
     41          1           0       -6.343777   -0.684180    2.600043
     42          1           0       -6.399066    1.066436    2.477033
     43          1           0       -7.656034   -0.874619    0.449695
     44          1           0       -7.719353    0.884502    0.341089
     45          1           0       -8.895746   -0.790501    2.630815
     46          1           0       -8.950192    0.969958    2.536545
     47          1           0      -10.211634   -0.941618    0.489417
     48          1           0      -10.271653    0.819435    0.405997
     49          1           0      -11.446178   -0.883983    2.676085
     50          1           0      -11.499468    0.877562    2.602847
     51          1           0      -12.766836   -1.010349    0.537794
     52          1           0      -12.822965    0.751524    0.470771
     53          1           0      -13.997028   -0.968546    2.728565
     54          1           0      -14.048850    0.793616    2.667786
     55          1           0      -15.322128   -1.080095    0.592794
     56          1           0      -15.375286    0.682453    0.535094
     57          1           0      -16.546549   -1.045604    2.785871
     58          1           0      -16.597967    0.715957    2.730640
     59          1           0      -17.909582   -1.158422    0.657988
     60          1           0      -17.962762    0.616456    0.603944
     61          1           0      -18.766806   -0.256347    1.928432
 ---------------------------------------------------------------------

 SCF Done:  E(RCAM-B3LYP) =  -1065.05548576     A.U. after   12 cycles

 Excitation energies and oscillator strengths:

 Excited state symmetry could not be determined.
 Excited State   1:      Triplet-?Sym    1.9206 eV  645.56 nm  f=0.0000  <S**2>=2.000
      94 -> 98         0.12038
      96 -> 98         0.16360
      96 -> 99        -0.14897
      97 -> 98         0.64707
      97 <- 98         0.14758
 This state for optimization and/or second-order correction.
 Total Energy, E(TD-HF/TD-KS) =  -1064.98490615
 Copying the excited state density for this state as the 1-particle RhoCI density.

 Excited state symmetry could not be determined.
 Excited State   2:      Triplet-?Sym    3.2582 eV  380.53 nm  f=0.0000  <S**2>=2.000
      94 -> 98         0.18350
      96 -> 98         0.13854
      97 -> 99         0.62968
      97 ->100        -0.10724

 Alpha  occ. eigenvalues --  -19.18110 -14.43446 -10.33106 -10.31469 -10.30474
 Alpha  occ. eigenvalues --  -10.30469 -10.27364 -10.27171 -10.26779 -10.26657
 Alpha  occ. eigenvalues --  -10.26411 -10.26378 -10.25853 -10.25780 -10.25564
 Alpha  occ. eigenvalues --  -10.25250 -10.24862 -10.24595 -10.24565 -10.24545
 Alpha  occ. eigenvalues --  -10.24525 -10.24495 -10.24482 -10.24479 -10.24398
 Alpha  occ. eigenvalues --  -10.24251  -1.09105  -1.05054  -0.95219  -0.90196
 Alpha  occ. eigenvalues --   -0.89407  -0.88175  -0.86175  -0.85374  -0.84126
 Alpha  occ. eigenvalues --   -0.82884  -0.82038  -0.79747  -0.79550  -0.76481
 Alpha  occ. eigenvalues --   -0.74628  -0.71191  -0.69360  -0.68080  -0.66790
 Alpha  occ. eigenvalues --   -0.65952  -0.64722  -0.64012  -0.63974  -0.61331
 Alpha  occ. eigenvalues --   -0.60031  -0.58131  -0.56188  -0.55274  -0.54931
 Alpha  occ. eigenvalues --   -0.54384  -0.54175  -0.52362  -0.52088  -0.51331
 Alpha  occ. eigenvalues --   -0.50524  -0.49944  -0.49578  -0.48837  -0.48602
 Alpha  occ. eigenvalues --   -0.48391  -0.48020  -0.47731  -0.47251  -0.46917
 Alpha  occ. eigenvalues --   -0.46255  -0.45923  -0.45596  -0.44612  -0.44015
 Alpha  occ. eigenvalues --   -0.43494  -0.42782  -0.41946  -0.41888  -0.40972
 Alpha  occ. eigenvalues --   -0.40246  -0.39321  -0.39111  -0.39073  -0.38408
 Alpha  occ. eigenvalues --   -0.38329  -0.38047  -0.37753  -0.37577  -0.37364
 Alpha  occ. eigenvalues --   -0.37252  -0.35211  -0.35185  -0.32303  -0.29736
 Alpha  occ. eigenvalues --   -0.28293  -0.23220
 Alpha virt. eigenvalues --   -0.01675   0.01866   0.07601   0.08902   0.08986
 Alpha virt. eigenvalues --    0.10597   0.10862   0.11414   0.11810   0.11958
 Alpha virt. eigenvalues --    0.12271   0.12610   0.12846   0.13663   0.13911

 Mulliken charges:
               1
     1  C    0.051003
     2  C    0.040602
     3  C    0.025287
     4  C   -0.010580
     5  C    0.187694
     6  C   -0.065643
     7  C    0.005435
     8  C    0.012258
     9  C   -0.018800
    10  C    0.033813
    11  N   -0.311398
    12  C    0.069461
    13  C    0.049298
    14  C   -0.035742
    15  C    0.020424
    16  C   -0.013959
    17  C   -0.007595
    18  C   -0.007946
    19  C   -0.009662
    20  C   -0.009739
    21  C   -0.011247
    22  C   -0.017321
    23  C   -0.043364
    24  C   -0.011600
    25  C    0.079860
    26  O   -0.227696
    27  H   -0.032949
    28  H   -0.028135
    29  H   -0.053652
    30  H   -0.033817
    31  H   -0.037627
    32  H   -0.045306
    33  H    0.039962
    34  H    0.040091
    35  H    0.030041
    36  H    0.039313
    37  H    0.039761
    38  H    0.031353
    39  H    0.038954
    40  H    0.039270
    41  H    0.017090
    42  H    0.018370
    43  H    0.000556
    44  H    0.000833
    45  H    0.006528
    46  H    0.006722
    47  H    0.003224
    48  H    0.003353
    49  H    0.004796
    50  H    0.004848
    51  H    0.003787
    52  H    0.003855
    53  H    0.004316
    54  H    0.004331
    55  H    0.003726
    56  H    0.003771
    57  H    0.007812
    58  H    0.007817
    59  H    0.019153
    60  H    0.019197
    61  H    0.015813
 Sum of Mulliken charges =   0.00000

 Dipole moment (field-independent basis, Debye):
    X=              5.0092    Y=             -0.2698    Z=             -3.5567  Tot=              6.1494
 Quadrupole moment (field-independent basis, Debye-Ang):
   XX=           -147.7328   YY=           -164.4152   ZZ=           -166.2400
   XY=              1.6392   XZ=              8.3040   YZ=             -0.2967

 Normal termination of Gaussian 09 at Sun May  7 05:31:31 2017.
