 Gaussian 09, Revision D.01,

 ----------------------------------------------------------------------
 #CAM-B3LYP/cc-pVDZ opt(noeigentest,modredundant) nosymm SCRF=(Solvent=
 water) TD(NStates=3) guess=read geom=(allcheck,modredundant)
 ----------------------------------------------------------------------

 Structure from the checkpoint file:  "L90tail.chk"
 -----------
 L90tail deg
 -----------
 Charge =  0 Multiplicity = 1

 SCF Done:  E(RCAM-B3LYP) =  -1065.06169487     A.U. after   11 cycles
 SCF Done:  E(RCAM-B3LYP) =  -1065.05747266     A.U. after   12 cycles
 SCF Done:  E(RCAM-B3LYP) =  -1065.05491410     A.U. after   11 cycles
 SCF Done:  E(RCAM-B3LYP) =  -1065.05410506     A.U. after   12 cycles
 SCF Done:  E(RCAM-B3LYP) =  -1065.05428372     A.U. after   11 cycles
 SCF Done:  E(RCAM-B3LYP) =  -1065.05465909     A.U. after    9 cycles
 SCF Done:  E(RCAM-B3LYP) =  -1065.05496183     A.U. after    9 cycles
 SCF Done:  E(RCAM-B3LYP) =  -1065.05512396     A.U. after   10 cycles
 SCF Done:  E(RCAM-B3LYP) =  -1065.05503982     A.U. after   10 cycles
 SCF Done:  E(RCAM-B3LYP) =  -1065.05496113     A.U. after   10 cycles
 SCF Done:  E(RCAM-B3LYP) =  -1065.05495647     A.U. after    8 cycles
 SCF Done:  E(RCAM-B3LYP) =  -1065.05496783     A.U. after    7 cycles
 SCF Done:  E(RCAM-B3LYP) =  -1065.05497251     A.U. after    5 cycles
 Optimization completed.
    -- Stationary point found.
 Normal termination of Gaussian 09 at Sat May  6 22:58:24 2017.
 Gaussian 09:  ES64L-G09RevD.01 24-Apr-2013

 ----------------------------------------------------------------------
 #CAM-B3LYP/cc-pVDZ nosymm TD(NStates=2, triplets) guess=read geom=(all
 check,modredundant)
 ----------------------------------------------------------------------

 Structure from the checkpoint file:  "L90tail.chk"
 -----------
 L90tail deg
 -----------
 Charge =  0 Multiplicity = 1

                          Input orientation:
 ---------------------------------------------------------------------
 Center     Atomic      Atomic             Coordinates (Angstroms)
 Number     Number       Type             X           Y           Z
 ---------------------------------------------------------------------
      1          6           0       -0.110615    0.037615   -0.029039
      2          6           0       -0.095600    0.213425    1.411099
      3          6           0        1.148822    0.438233    2.055036
      4          6           0        2.365098    0.497416    1.365602
      5          6           0        2.358340    0.324873   -0.038217
      6          6           0        1.111639    0.096755   -0.715943
      7          6           0       -1.337397   -0.185360   -0.692341
      8          6           0       -2.553303   -0.240264    0.019369
      9          6           0       -2.536753   -0.069417    1.400426
     10          6           0       -1.325804    0.150099    2.096778
     11          7           0        3.503119    0.374223   -0.762752
     12          6           0        4.766686    0.646846   -0.100203
     13          6           0       -3.820179   -0.135767    2.181074
     14          6           0       -4.554316    1.165673    2.386042
     15          6           0       -5.825220    1.052783    3.213533
     16          6           0       -6.528525    2.392835    3.401272
     17          6           0       -7.801562    2.296211    4.236037
     18          6           0       -8.504748    3.635775    4.430249
     19          6           0       -9.774996    3.543671    5.269991
     20          6           0      -10.474597    4.884797    5.466969
     21          6           0      -11.743048    4.795205    6.309702
     22          6           0      -12.440523    6.136904    6.508832
     23          6           0      -13.708640    6.048012    7.352562
     24          6           0      -14.396403    7.394666    7.545864
     25          6           0        3.513044    0.169464   -2.206101
     26          8           0       -4.231067   -1.192831    2.619471
     27          1           0        1.147869    0.568027    3.139666
     28          1           0        3.289434    0.664047    1.910152
     29          1           0        1.099994   -0.028355   -1.796755
     30          1           0       -1.339165    0.274201    3.181522
     31          1           0       -3.493723   -0.412034   -0.505654
     32          1           0       -1.331641   -0.314254   -1.776876
     33          1           0       -4.760214    1.580903    1.383004
     34          1           0       -3.838779    1.875696    2.838412
     35          1           0        4.549896    0.170610   -2.553507
     36          1           0        3.059468   -0.795048   -2.471398
     37          1           0        2.969247    0.971681   -2.726447
     38          1           0        5.564790    0.693100   -0.845906
     39          1           0        4.722745    1.606174    0.437322
     40          1           0        5.003193   -0.143959    0.628778
     41          1           0       -6.509347    0.335443    2.731131
     42          1           0       -5.579065    0.619007    4.196870
     43          1           0       -6.771747    2.820628    2.412137
     44          1           0       -5.833440    3.107111    3.878017
     45          1           0       -8.497715    1.583641    3.758183
     46          1           0       -7.557138    1.865816    5.223830
     47          1           0       -8.750941    4.064748    3.442183
     48          1           0       -7.805750    4.348252    4.904339
     49          1           0      -10.475457    2.832981    4.795369
     50          1           0       -9.528639    3.112851    6.257246
     51          1           0      -10.722281    5.314941    4.479731
     52          1           0       -9.772692    5.595452    5.939594
     53          1           0      -12.445783    4.085718    5.836505
     54          1           0      -11.495200    4.363614    7.296308
     55          1           0      -12.689454    6.569028    5.522511
     56          1           0      -11.737943    6.846876    6.981999
     57          1           0      -14.409936    5.338855    6.878641
     58          1           0      -13.458889    5.615510    8.337345
     59          1           0      -14.685852    7.835513    6.578081
     60          1           0      -13.728789    8.113079    8.048728
     61          1           0      -15.307337    7.301222    8.156381
 ---------------------------------------------------------------------

 SCF Done:  E(RCAM-B3LYP) =  -1065.04409108     A.U. after   12 cycles

 Excitation energies and oscillator strengths:

 Excited state symmetry could not be determined.
 Excited State   1:      Triplet-?Sym    1.9838 eV  624.98 nm  f=0.0000  <S**2>=2.000
      93 ->101         0.12322
      96 -> 98         0.29016
      97 -> 98         0.61957
      97 -> 99         0.13382
      97 <- 98         0.13952
 This state for optimization and/or second-order correction.
 Total Energy, E(TD-HF/TD-KS) =  -1064.97118704
 Copying the excited state density for this state as the 1-particle RhoCI density.

 Excited state symmetry could not be determined.
 Excited State   2:      Triplet-?Sym    3.2478 eV  381.75 nm  f=0.0000  <S**2>=2.000
      96 -> 98         0.55575
      97 -> 98        -0.31725
      97 -> 99         0.19307
      97 ->101        -0.13519

 Alpha  occ. eigenvalues --  -19.19744 -14.42445 -10.34085 -10.30630 -10.29925
 Alpha  occ. eigenvalues --  -10.29891 -10.26925 -10.26723 -10.26678 -10.26624
 Alpha  occ. eigenvalues --  -10.26465 -10.26372 -10.26223 -10.26087 -10.26018
 Alpha  occ. eigenvalues --  -10.24965 -10.24942 -10.24916 -10.24883 -10.24739
 Alpha  occ. eigenvalues --  -10.24724 -10.24720 -10.24714 -10.24698 -10.24691
 Alpha  occ. eigenvalues --  -10.24570  -1.11488  -1.04278  -0.94979  -0.90047
 Alpha  occ. eigenvalues --   -0.89638  -0.88490  -0.86503  -0.85222  -0.83921
 Alpha  occ. eigenvalues --   -0.82996  -0.81686  -0.79890  -0.79180  -0.76315
 Alpha  occ. eigenvalues --   -0.74504  -0.71220  -0.70095  -0.67885  -0.66651
 Alpha  occ. eigenvalues --   -0.65955  -0.64963  -0.64283  -0.64148  -0.60983
 Alpha  occ. eigenvalues --   -0.59646  -0.58071  -0.56079  -0.55548  -0.54526
 Alpha  occ. eigenvalues --   -0.54353  -0.53842  -0.53145  -0.52220  -0.51374
 Alpha  occ. eigenvalues --   -0.50682  -0.50090  -0.49697  -0.49490  -0.48806
 Alpha  occ. eigenvalues --   -0.48146  -0.48005  -0.47770  -0.47288  -0.46573
 Alpha  occ. eigenvalues --   -0.46500  -0.45682  -0.45372  -0.44924  -0.44231
 Alpha  occ. eigenvalues --   -0.43749  -0.43346  -0.41688  -0.41458  -0.41253
 Alpha  occ. eigenvalues --   -0.40372  -0.40154  -0.39524  -0.39258  -0.38815
 Alpha  occ. eigenvalues --   -0.38703  -0.38481  -0.38016  -0.37877  -0.37568
 Alpha  occ. eigenvalues --   -0.37527  -0.35570  -0.34795  -0.32426  -0.30051
 Alpha  occ. eigenvalues --   -0.27561  -0.22870
 Alpha virt. eigenvalues --   -0.00401   0.04328   0.04779   0.08020   0.09301
 Alpha virt. eigenvalues --    0.10136   0.10595   0.11253   0.11941   0.12037
 Alpha virt. eigenvalues --    0.12168   0.12548   0.12586   0.13373   0.13582

 Mulliken charges:
               1
     1  C    0.056323
     2  C    0.030183
     3  C    0.018127
     4  C   -0.019527
     5  C    0.193345
     6  C   -0.077828
     7  C   -0.000692
     8  C    0.043033
     9  C    0.005047
    10  C    0.018666
    11  N   -0.316157
    12  C    0.072142
    13  C    0.035579
    14  C   -0.013729
    15  C    0.000331
    16  C   -0.012016
    17  C   -0.008912
    18  C   -0.009015
    19  C   -0.009251
    20  C   -0.010558
    21  C   -0.010938
    22  C   -0.017649
    23  C   -0.043337
    24  C   -0.011642
    25  C    0.081939
    26  O   -0.185820
    27  H   -0.038719
    28  H   -0.027896
    29  H   -0.053498
    30  H   -0.048218
    31  H   -0.035878
    32  H   -0.041023
    33  H    0.034039
    34  H    0.033215
    35  H    0.027958
    36  H    0.039417
    37  H    0.033518
    38  H    0.029428
    39  H    0.035983
    40  H    0.034784
    41  H    0.018410
    42  H    0.017881
    43  H    0.003426
    44  H    0.003346
    45  H    0.006694
    46  H    0.006518
    47  H    0.003993
    48  H    0.003851
    49  H    0.005031
    50  H    0.004923
    51  H    0.004148
    52  H    0.004051
    53  H    0.004440
    54  H    0.004381
    55  H    0.003929
    56  H    0.003866
    57  H    0.007905
    58  H    0.007865
    59  H    0.019292
    60  H    0.019277
    61  H    0.016018
 Sum of Mulliken charges =   0.00000

 Dipole moment (field-independent basis, Debye):
    X=              3.9943    Y=              2.3847    Z=             -1.9931  Tot=              5.0610
 Quadrupole moment (field-independent basis, Debye-Ang):
   XX=           -149.0219   YY=           -170.1061   ZZ=           -156.1175
   XY=             -6.1942   XZ=              3.4971   YZ=              7.3043

 Normal termination of Gaussian 09 at Sat May  6 23:01:42 2017.
